# vtk DataFile Version 1.0
FinEtools Export
ASCII

DATASET UNSTRUCTURED_GRID
POINTS 376 double
0.0 0.0 0.0
0.0005 0.0 0.0
0.001 0.0 0.0
0.0015 0.0 0.0
0.002 0.0 0.0
0.0025 0.0 0.0
0.003 0.0 0.0
0.0 0.0003333333333333333 0.0
0.0005 0.0003333333333333333 0.0
0.001 0.0003333333333333333 0.0
0.0015 0.0003333333333333333 0.0
0.002 0.0003333333333333333 0.0
0.0025 0.0003333333333333333 0.0
0.003 0.0003333333333333333 0.0
0.0 0.0006666666666666666 0.0
0.0005 0.0006666666666666666 0.0
0.001 0.0006666666666666666 0.0
0.0015 0.0006666666666666666 0.0
0.002 0.0006666666666666666 0.0
0.0025 0.0006666666666666666 0.0
0.003 0.0006666666666666666 0.0
0.0 0.001 0.0
0.0005 0.001 0.0
0.001 0.001 0.0
0.0015 0.001 0.0
0.002 0.001 0.0
0.0025 0.001 0.0
0.003 0.001 0.0
0.0 0.0 0.0003333333333333333
0.0005 0.0 0.0003333333333333333
0.001 0.0 0.0003333333333333333
0.0015 0.0 0.0003333333333333333
0.002 0.0 0.0003333333333333333
0.0025 0.0 0.0003333333333333333
0.003 0.0 0.0003333333333333333
0.0 0.0003333333333333333 0.0003333333333333333
0.0005 0.0003333333333333333 0.0003333333333333333
0.001 0.0003333333333333333 0.0003333333333333333
0.0015 0.0003333333333333333 0.0003333333333333333
0.002 0.0003333333333333333 0.0003333333333333333
0.0025 0.0003333333333333333 0.0003333333333333333
0.003 0.0003333333333333333 0.0003333333333333333
0.0 0.0006666666666666666 0.0003333333333333333
0.0005 0.0006666666666666666 0.0003333333333333333
0.001 0.0006666666666666666 0.0003333333333333333
0.0015 0.0006666666666666666 0.0003333333333333333
0.002 0.0006666666666666666 0.0003333333333333333
0.0025 0.0006666666666666666 0.0003333333333333333
0.003 0.0006666666666666666 0.0003333333333333333
0.0 0.001 0.0003333333333333333
0.0005 0.001 0.0003333333333333333
0.001 0.001 0.0003333333333333333
0.0015 0.001 0.0003333333333333333
0.002 0.001 0.0003333333333333333
0.0025 0.001 0.0003333333333333333
0.003 0.001 0.0003333333333333333
0.0 0.0 0.0006666666666666666
0.0005 0.0 0.0006666666666666666
0.001 0.0 0.0006666666666666666
0.0015 0.0 0.0006666666666666666
0.002 0.0 0.0006666666666666666
0.0025 0.0 0.0006666666666666666
0.003 0.0 0.0006666666666666666
0.0 0.0003333333333333333 0.0006666666666666666
0.0005 0.0003333333333333333 0.0006666666666666666
0.001 0.0003333333333333333 0.0006666666666666666
0.0015 0.0003333333333333333 0.0006666666666666666
0.002 0.0003333333333333333 0.0006666666666666666
0.0025 0.0003333333333333333 0.0006666666666666666
0.003 0.0003333333333333333 0.0006666666666666666
0.0 0.0006666666666666666 0.0006666666666666666
0.0005 0.0006666666666666666 0.0006666666666666666
0.001 0.0006666666666666666 0.0006666666666666666
0.0015 0.0006666666666666666 0.0006666666666666666
0.002 0.0006666666666666666 0.0006666666666666666
0.0025 0.0006666666666666666 0.0006666666666666666
0.003 0.0006666666666666666 0.0006666666666666666
0.0 0.001 0.0006666666666666666
0.0005 0.001 0.0006666666666666666
0.001 0.001 0.0006666666666666666
0.0015 0.001 0.0006666666666666666
0.002 0.001 0.0006666666666666666
0.0025 0.001 0.0006666666666666666
0.003 0.001 0.0006666666666666666
0.0 0.0 0.001
0.0005 0.0 0.001
0.001 0.0 0.001
0.0015 0.0 0.001
0.002 0.0 0.001
0.0025 0.0 0.001
0.003 0.0 0.001
0.0 0.0003333333333333333 0.001
0.0005 0.0003333333333333333 0.001
0.001 0.0003333333333333333 0.001
0.0015 0.0003333333333333333 0.001
0.002 0.0003333333333333333 0.001
0.0025 0.0003333333333333333 0.001
0.003 0.0003333333333333333 0.001
0.0 0.0006666666666666666 0.001
0.0005 0.0006666666666666666 0.001
0.001 0.0006666666666666666 0.001
0.0015 0.0006666666666666666 0.001
0.002 0.0006666666666666666 0.001
0.0025 0.0006666666666666666 0.001
0.003 0.0006666666666666666 0.001
0.0 0.001 0.001
0.0005 0.001 0.001
0.001 0.001 0.001
0.0015 0.001 0.001
0.002 0.001 0.001
0.0025 0.001 0.001
0.003 0.001 0.001
0.00025 0.0 0.0
0.0005 0.00016666666666666666 0.0
0.00025 0.0003333333333333333 0.0
0.0 0.00016666666666666666 0.0
0.00025 0.0 0.0003333333333333333
0.0005 0.00016666666666666666 0.0003333333333333333
0.00025 0.0003333333333333333 0.0003333333333333333
0.0 0.00016666666666666666 0.0003333333333333333
0.0 0.0 0.00016666666666666666
0.0005 0.0 0.00016666666666666666
0.0005 0.0003333333333333333 0.00016666666666666666
0.0 0.0003333333333333333 0.00016666666666666666
0.00025 0.0 0.0006666666666666666
0.0005 0.00016666666666666666 0.0006666666666666666
0.00025 0.0003333333333333333 0.0006666666666666666
0.0 0.00016666666666666666 0.0006666666666666666
0.0 0.0 0.0005
0.0005 0.0 0.0005
0.0005 0.0003333333333333333 0.0005
0.0 0.0003333333333333333 0.0005
0.00025 0.0 0.001
0.0005 0.00016666666666666666 0.001
0.00025 0.0003333333333333333 0.001
0.0 0.00016666666666666666 0.001
0.0 0.0 0.0008333333333333333
0.0005 0.0 0.0008333333333333333
0.0005 0.0003333333333333333 0.0008333333333333333
0.0 0.0003333333333333333 0.0008333333333333333
0.0005 0.0005 0.0
0.00025 0.0006666666666666666 0.0
0.0 0.0005 0.0
0.0005 0.0005 0.0003333333333333333
0.00025 0.0006666666666666666 0.0003333333333333333
0.0 0.0005 0.0003333333333333333
0.0005 0.0006666666666666666 0.00016666666666666666
0.0 0.0006666666666666666 0.00016666666666666666
0.0005 0.0005 0.0006666666666666666
0.00025 0.0006666666666666666 0.0006666666666666666
0.0 0.0005 0.0006666666666666666
0.0005 0.0006666666666666666 0.0005
0.0 0.0006666666666666666 0.0005
0.0005 0.0005 0.001
0.00025 0.0006666666666666666 0.001
0.0 0.0005 0.001
0.0005 0.0006666666666666666 0.0008333333333333333
0.0 0.0006666666666666666 0.0008333333333333333
0.0005 0.0008333333333333333 0.0
0.00025 0.001 0.0
0.0 0.0008333333333333333 0.0
0.0005 0.0008333333333333333 0.0003333333333333333
0.00025 0.001 0.0003333333333333333
0.0 0.0008333333333333333 0.0003333333333333333
0.0005 0.001 0.00016666666666666666
0.0 0.001 0.00016666666666666666
0.0005 0.0008333333333333333 0.0006666666666666666
0.00025 0.001 0.0006666666666666666
0.0 0.0008333333333333333 0.0006666666666666666
0.0005 0.001 0.0005
0.0 0.001 0.0005
0.0005 0.0008333333333333333 0.001
0.00025 0.001 0.001
0.0 0.0008333333333333333 0.001
0.0005 0.001 0.0008333333333333333
0.0 0.001 0.0008333333333333333
0.00075 0.0 0.0
0.001 0.00016666666666666666 0.0
0.00075 0.0003333333333333333 0.0
0.00075 0.0 0.0003333333333333333
0.001 0.00016666666666666666 0.0003333333333333333
0.00075 0.0003333333333333333 0.0003333333333333333
0.001 0.0 0.00016666666666666666
0.001 0.0003333333333333333 0.00016666666666666666
0.00075 0.0 0.0006666666666666666
0.001 0.00016666666666666666 0.0006666666666666666
0.00075 0.0003333333333333333 0.0006666666666666666
0.001 0.0 0.0005
0.001 0.0003333333333333333 0.0005
0.00075 0.0 0.001
0.001 0.00016666666666666666 0.001
0.00075 0.0003333333333333333 0.001
0.001 0.0 0.0008333333333333333
0.001 0.0003333333333333333 0.0008333333333333333
0.001 0.0005 0.0
0.00075 0.0006666666666666666 0.0
0.001 0.0005 0.0003333333333333333
0.00075 0.0006666666666666666 0.0003333333333333333
0.001 0.0006666666666666666 0.00016666666666666666
0.001 0.0005 0.0006666666666666666
0.00075 0.0006666666666666666 0.0006666666666666666
0.001 0.0006666666666666666 0.0005
0.001 0.0005 0.001
0.00075 0.0006666666666666666 0.001
0.001 0.0006666666666666666 0.0008333333333333333
0.001 0.0008333333333333333 0.0
0.00075 0.001 0.0
0.001 0.0008333333333333333 0.0003333333333333333
0.00075 0.001 0.0003333333333333333
0.001 0.001 0.00016666666666666666
0.001 0.0008333333333333333 0.0006666666666666666
0.00075 0.001 0.0006666666666666666
0.001 0.001 0.0005
0.001 0.0008333333333333333 0.001
0.00075 0.001 0.001
0.001 0.001 0.0008333333333333333
0.00125 0.0 0.0
0.0015 0.00016666666666666666 0.0
0.00125 0.0003333333333333333 0.0
0.00125 0.0 0.0003333333333333333
0.0015 0.00016666666666666666 0.0003333333333333333
0.00125 0.0003333333333333333 0.0003333333333333333
0.0015 0.0 0.00016666666666666666
0.0015 0.0003333333333333333 0.00016666666666666666
0.00125 0.0 0.0006666666666666666
0.0015 0.00016666666666666666 0.0006666666666666666
0.00125 0.0003333333333333333 0.0006666666666666666
0.0015 0.0 0.0005
0.0015 0.0003333333333333333 0.0005
0.00125 0.0 0.001
0.0015 0.00016666666666666666 0.001
0.00125 0.0003333333333333333 0.001
0.0015 0.0 0.0008333333333333333
0.0015 0.0003333333333333333 0.0008333333333333333
0.0015 0.0005 0.0
0.00125 0.0006666666666666666 0.0
0.0015 0.0005 0.0003333333333333333
0.00125 0.0006666666666666666 0.0003333333333333333
0.0015 0.0006666666666666666 0.00016666666666666666
0.0015 0.0005 0.0006666666666666666
0.00125 0.0006666666666666666 0.0006666666666666666
0.0015 0.0006666666666666666 0.0005
0.0015 0.0005 0.001
0.00125 0.0006666666666666666 0.001
0.0015 0.0006666666666666666 0.0008333333333333333
0.0015 0.0008333333333333333 0.0
0.00125 0.001 0.0
0.0015 0.0008333333333333333 0.0003333333333333333
0.00125 0.001 0.0003333333333333333
0.0015 0.001 0.00016666666666666666
0.0015 0.0008333333333333333 0.0006666666666666666
0.00125 0.001 0.0006666666666666666
0.0015 0.001 0.0005
0.0015 0.0008333333333333333 0.001
0.00125 0.001 0.001
0.0015 0.001 0.0008333333333333333
0.00175 0.0 0.0
0.002 0.00016666666666666666 0.0
0.00175 0.0003333333333333333 0.0
0.00175 0.0 0.0003333333333333333
0.002 0.00016666666666666666 0.0003333333333333333
0.00175 0.0003333333333333333 0.0003333333333333333
0.002 0.0 0.00016666666666666666
0.002 0.0003333333333333333 0.00016666666666666666
0.00175 0.0 0.0006666666666666666
0.002 0.00016666666666666666 0.0006666666666666666
0.00175 0.0003333333333333333 0.0006666666666666666
0.002 0.0 0.0005
0.002 0.0003333333333333333 0.0005
0.00175 0.0 0.001
0.002 0.00016666666666666666 0.001
0.00175 0.0003333333333333333 0.001
0.002 0.0 0.0008333333333333333
0.002 0.0003333333333333333 0.0008333333333333333
0.002 0.0005 0.0
0.00175 0.0006666666666666666 0.0
0.002 0.0005 0.0003333333333333333
0.00175 0.0006666666666666666 0.0003333333333333333
0.002 0.0006666666666666666 0.00016666666666666666
0.002 0.0005 0.0006666666666666666
0.00175 0.0006666666666666666 0.0006666666666666666
0.002 0.0006666666666666666 0.0005
0.002 0.0005 0.001
0.00175 0.0006666666666666666 0.001
0.002 0.0006666666666666666 0.0008333333333333333
0.002 0.0008333333333333333 0.0
0.00175 0.001 0.0
0.002 0.0008333333333333333 0.0003333333333333333
0.00175 0.001 0.0003333333333333333
0.002 0.001 0.00016666666666666666
0.002 0.0008333333333333333 0.0006666666666666666
0.00175 0.001 0.0006666666666666666
0.002 0.001 0.0005
0.002 0.0008333333333333333 0.001
0.00175 0.001 0.001
0.002 0.001 0.0008333333333333333
0.0022500000000000003 0.0 0.0
0.0025 0.00016666666666666666 0.0
0.0022500000000000003 0.0003333333333333333 0.0
0.0022500000000000003 0.0 0.0003333333333333333
0.0025 0.00016666666666666666 0.0003333333333333333
0.0022500000000000003 0.0003333333333333333 0.0003333333333333333
0.0025 0.0 0.00016666666666666666
0.0025 0.0003333333333333333 0.00016666666666666666
0.0022500000000000003 0.0 0.0006666666666666666
0.0025 0.00016666666666666666 0.0006666666666666666
0.0022500000000000003 0.0003333333333333333 0.0006666666666666666
0.0025 0.0 0.0005
0.0025 0.0003333333333333333 0.0005
0.0022500000000000003 0.0 0.001
0.0025 0.00016666666666666666 0.001
0.0022500000000000003 0.0003333333333333333 0.001
0.0025 0.0 0.0008333333333333333
0.0025 0.0003333333333333333 0.0008333333333333333
0.0025 0.0005 0.0
0.0022500000000000003 0.0006666666666666666 0.0
0.0025 0.0005 0.0003333333333333333
0.0022500000000000003 0.0006666666666666666 0.0003333333333333333
0.0025 0.0006666666666666666 0.00016666666666666666
0.0025 0.0005 0.0006666666666666666
0.0022500000000000003 0.0006666666666666666 0.0006666666666666666
0.0025 0.0006666666666666666 0.0005
0.0025 0.0005 0.001
0.0022500000000000003 0.0006666666666666666 0.001
0.0025 0.0006666666666666666 0.0008333333333333333
0.0025 0.0008333333333333333 0.0
0.0022500000000000003 0.001 0.0
0.0025 0.0008333333333333333 0.0003333333333333333
0.0022500000000000003 0.001 0.0003333333333333333
0.0025 0.001 0.00016666666666666666
0.0025 0.0008333333333333333 0.0006666666666666666
0.0022500000000000003 0.001 0.0006666666666666666
0.0025 0.001 0.0005
0.0025 0.0008333333333333333 0.001
0.0022500000000000003 0.001 0.001
0.0025 0.001 0.0008333333333333333
0.00275 0.0 0.0
0.003 0.00016666666666666666 0.0
0.00275 0.0003333333333333333 0.0
0.00275 0.0 0.0003333333333333333
0.003 0.00016666666666666666 0.0003333333333333333
0.00275 0.0003333333333333333 0.0003333333333333333
0.003 0.0 0.00016666666666666666
0.003 0.0003333333333333333 0.00016666666666666666
0.00275 0.0 0.0006666666666666666
0.003 0.00016666666666666666 0.0006666666666666666
0.00275 0.0003333333333333333 0.0006666666666666666
0.003 0.0 0.0005
0.003 0.0003333333333333333 0.0005
0.00275 0.0 0.001
0.003 0.00016666666666666666 0.001
0.00275 0.0003333333333333333 0.001
0.003 0.0 0.0008333333333333333
0.003 0.0003333333333333333 0.0008333333333333333
0.003 0.0005 0.0
0.00275 0.0006666666666666666 0.0
0.003 0.0005 0.0003333333333333333
0.00275 0.0006666666666666666 0.0003333333333333333
0.003 0.0006666666666666666 0.00016666666666666666
0.003 0.0005 0.0006666666666666666
0.00275 0.0006666666666666666 0.0006666666666666666
0.003 0.0006666666666666666 0.0005
0.003 0.0005 0.001
0.00275 0.0006666666666666666 0.001
0.003 0.0006666666666666666 0.0008333333333333333
0.003 0.0008333333333333333 0.0
0.00275 0.001 0.0
0.003 0.0008333333333333333 0.0003333333333333333
0.00275 0.001 0.0003333333333333333
0.003 0.001 0.00016666666666666666
0.003 0.0008333333333333333 0.0006666666666666666
0.00275 0.001 0.0006666666666666666
0.003 0.001 0.0005
0.003 0.0008333333333333333 0.001
0.00275 0.001 0.001
0.003 0.001 0.0008333333333333333


CELLS 54 1134
20 0 1 8 7 28 29 36 35 112 113 114 115 116 117 118 119 120 121 122 123
20 28 29 36 35 56 57 64 63 116 117 118 119 124 125 126 127 128 129 130 131
20 56 57 64 63 84 85 92 91 124 125 126 127 132 133 134 135 136 137 138 139
20 7 8 15 14 35 36 43 42 114 140 141 142 118 143 144 145 123 122 146 147
20 35 36 43 42 63 64 71 70 118 143 144 145 126 148 149 150 131 130 151 152
20 63 64 71 70 91 92 99 98 126 148 149 150 134 153 154 155 139 138 156 157
20 14 15 22 21 42 43 50 49 141 158 159 160 144 161 162 163 147 146 164 165
20 42 43 50 49 70 71 78 77 144 161 162 163 149 166 167 168 152 151 169 170
20 70 71 78 77 98 99 106 105 149 166 167 168 154 171 172 173 157 156 174 175
20 1 2 9 8 29 30 37 36 176 177 178 113 179 180 181 117 121 182 183 122
20 29 30 37 36 57 58 65 64 179 180 181 117 184 185 186 125 129 187 188 130
20 57 58 65 64 85 86 93 92 184 185 186 125 189 190 191 133 137 192 193 138
20 8 9 16 15 36 37 44 43 178 194 195 140 181 196 197 143 122 183 198 146
20 36 37 44 43 64 65 72 71 181 196 197 143 186 199 200 148 130 188 201 151
20 64 65 72 71 92 93 100 99 186 199 200 148 191 202 203 153 138 193 204 156
20 15 16 23 22 43 44 51 50 195 205 206 158 197 207 208 161 146 198 209 164
20 43 44 51 50 71 72 79 78 197 207 208 161 200 210 211 166 151 201 212 169
20 71 72 79 78 99 100 107 106 200 210 211 166 203 213 214 171 156 204 215 174
20 2 3 10 9 30 31 38 37 216 217 218 177 219 220 221 180 182 222 223 183
20 30 31 38 37 58 59 66 65 219 220 221 180 224 225 226 185 187 227 228 188
20 58 59 66 65 86 87 94 93 224 225 226 185 229 230 231 190 192 232 233 193
20 9 10 17 16 37 38 45 44 218 234 235 194 221 236 237 196 183 223 238 198
20 37 38 45 44 65 66 73 72 221 236 237 196 226 239 240 199 188 228 241 201
20 65 66 73 72 93 94 101 100 226 239 240 199 231 242 243 202 193 233 244 204
20 16 17 24 23 44 45 52 51 235 245 246 205 237 247 248 207 198 238 249 209
20 44 45 52 51 72 73 80 79 237 247 248 207 240 250 251 210 201 241 252 212
20 72 73 80 79 100 101 108 107 240 250 251 210 243 253 254 213 204 244 255 215
20 3 4 11 10 31 32 39 38 256 257 258 217 259 260 261 220 222 262 263 223
20 31 32 39 38 59 60 67 66 259 260 261 220 264 265 266 225 227 267 268 228
20 59 60 67 66 87 88 95 94 264 265 266 225 269 270 271 230 232 272 273 233
20 10 11 18 17 38 39 46 45 258 274 275 234 261 276 277 236 223 263 278 238
20 38 39 46 45 66 67 74 73 261 276 277 236 266 279 280 239 228 268 281 241
20 66 67 74 73 94 95 102 101 266 279 280 239 271 282 283 242 233 273 284 244
20 17 18 25 24 45 46 53 52 275 285 286 245 277 287 288 247 238 278 289 249
20 45 46 53 52 73 74 81 80 277 287 288 247 280 290 291 250 241 281 292 252
20 73 74 81 80 101 102 109 108 280 290 291 250 283 293 294 253 244 284 295 255
20 4 5 12 11 32 33 40 39 296 297 298 257 299 300 301 260 262 302 303 263
20 32 33 40 39 60 61 68 67 299 300 301 260 304 305 306 265 267 307 308 268
20 60 61 68 67 88 89 96 95 304 305 306 265 309 310 311 270 272 312 313 273
20 11 12 19 18 39 40 47 46 298 314 315 274 301 316 317 276 263 303 318 278
20 39 40 47 46 67 68 75 74 301 316 317 276 306 319 320 279 268 308 321 281
20 67 68 75 74 95 96 103 102 306 319 320 279 311 322 323 282 273 313 324 284
20 18 19 26 25 46 47 54 53 315 325 326 285 317 327 328 287 278 318 329 289
20 46 47 54 53 74 75 82 81 317 327 328 287 320 330 331 290 281 321 332 292
20 74 75 82 81 102 103 110 109 320 330 331 290 323 333 334 293 284 324 335 295
20 5 6 13 12 33 34 41 40 336 337 338 297 339 340 341 300 302 342 343 303
20 33 34 41 40 61 62 69 68 339 340 341 300 344 345 346 305 307 347 348 308
20 61 62 69 68 89 90 97 96 344 345 346 305 349 350 351 310 312 352 353 313
20 12 13 20 19 40 41 48 47 338 354 355 314 341 356 357 316 303 343 358 318
20 40 41 48 47 68 69 76 75 341 356 357 316 346 359 360 319 308 348 361 321
20 68 69 76 75 96 97 104 103 346 359 360 319 351 362 363 322 313 353 364 324
20 19 20 27 26 47 48 55 54 355 365 366 325 357 367 368 327 318 358 369 329
20 47 48 55 54 75 76 83 82 357 367 368 327 360 370 371 330 321 361 372 332
20 75 76 83 82 103 104 111 110 360 370 371 330 363 373 374 333 324 364 375 335


CELL_TYPES 54
25
25
25
25
25
25
25
25
25
25
25
25
25
25
25
25
25
25
25
25
25
25
25
25
25
25
25
25
25
25
25
25
25
25
25
25
25
25
25
25
25
25
25
25
25
25
25
25
25
25
25
25
25
25



POINT_DATA 376
VECTORS u double
0.0 0.0 0.0
-0.0001554288404473763 -4.103917252543104e-5 -7.457637209859144e-5
-0.0003297905428656918 -3.1577610351240956e-5 -0.0002908034647404142
-0.0005301750033486461 -1.9498059173724035e-5 -0.0005930360552714368
-0.0007556941277640774 -1.0729699939323664e-5 -0.0009530660838376771
-0.0009991334433389824 -3.2611613240949893e-6 -0.0013568867047295762
-0.0012507408327363722 3.2658289594506192e-6 -0.0017901463869236926
0.0 0.0 0.0
-0.00016493579461179133 -1.690243189982772e-5 -9.49222340863522e-5
-0.00034230994098606723 -1.1896573031767652e-5 -0.000301714250799099
-0.0005398025048730807 -6.998584687791707e-6 -0.0005981295874501394
-0.0007621092434347736 -3.750736160651355e-6 -0.0009551774334550085
-0.0010027289012142573 -1.220172184604602e-6 -0.0013571511777721204
-0.0012532603780024227 7.51196257501741e-7 -0.0017890396327546886
0.0 0.0 0.0
-0.00016493579461179122 1.6902431899827946e-5 -9.492223408635219e-5
-0.00034230994098606723 1.1896573031767496e-5 -0.0003017142507990991
-0.0005398025048730807 6.998584687792209e-6 -0.0005981295874501393
-0.0007621092434347739 3.7507361606521855e-6 -0.0009551774334550086
-0.001002728901214257 1.220172184605552e-6 -0.0013571511777721206
-0.0012532603780024225 -7.511962574996403e-7 -0.0017890396327546886
0.0 0.0 0.0
-0.00015542884044737656 4.1039172525430646e-5 -7.45763720985918e-5
-0.0003297905428656918 3.157761035124081e-5 -0.0002908034647404142
-0.0005301750033486468 1.9498059173723852e-5 -0.0005930360552714364
-0.000755694127764076 1.0729699939323874e-5 -0.0009530660838376755
-0.0009991334433389835 3.2611613240953735e-6 -0.0013568867047295742
-0.001250740832736369 -3.265828959447991e-6 -0.0017901463869236904
0.0 0.0 0.0
-3.8950477328567946e-5 -1.439910381189829e-5 -9.198801302324889e-5
-0.00013064605068730488 -1.0001708033232079e-5 -0.000349975453044025
-0.0002853133330903395 -4.926921295018633e-6 -0.0006919485956943455
-0.0004863921008664953 -1.4641451719146117e-6 -0.001084522245072095
-0.0007183490996104222 1.2761011391065465e-6 -0.0015083069604416733
-0.0009631670468550374 4.601882204853195e-6 -0.0019491745885366883
0.0 0.0 0.0
-4.5791115995911595e-5 -6.080328915863329e-6 -0.0001082676976166174
-0.00014126118522918865 -3.7972139159850705e-6 -0.0003602882909791858
-0.00029401234549218533 -1.7556722877395404e-6 -0.00069756639349357
-0.0004922947736379087 -5.192985353740711e-7 -0.001087241594970121
-0.0007216681809291105 4.282594327671432e-7 -0.001509174039050902
-0.0009651603534216389 1.3468243222101187e-6 -0.0019487551335370553
0.0 0.0 0.0
-4.579111599591164e-5 6.080328915863555e-6 -0.00010826769761661733
-0.00014126118522918862 3.7972139159848338e-6 -0.00036028829097918563
-0.00029401234549218517 1.75567228773959e-6 -0.0006975663934935698
-0.0004922947736379086 5.192985353747016e-7 -0.0010872415949701206
-0.00072166818092911 -4.28259432766884e-7 -0.0015091740390509015
-0.0009651603534216383 -1.3468243222101348e-6 -0.001948755133537055
0.0 0.0 0.0
-3.895047732856819e-5 1.4399103811898104e-5 -9.198801302324865e-5
-0.0001306460506873053 1.0001708033231647e-5 -0.0003499754530440247
-0.00028531333309034007 4.926921295018441e-6 -0.0006919485956943449
-0.0004863921008664956 1.464145171914894e-6 -0.001084522245072094
-0.0007183490996104232 -1.2761011391065516e-6 -0.001508306960441672
-0.0009631670468550357 -4.601882204853428e-6 -0.0019491745885366867
0.0 0.0 0.0
5.842313294703748e-5 1.217767312485669e-5 -0.00012521657304104977
4.433298292656755e-5 1.1534567223993993e-5 -0.00041160097973935885
-5.8095272172681526e-5 9.994345039338555e-6 -0.000789011987981515
-0.00022903162201283838 7.896679112026758e-6 -0.0012115630604828216
-0.0004458997296321452 5.876864743441972e-6 -0.0016538132413061585
-0.0006864692196434257 3.095652728163077e-6 -0.002100080733866793
0.0 0.0 0.0
5.2485442935392e-5 4.433801520800886e-6 -0.00014037672452650625
3.5648144294323765e-5 3.952505108945268e-6 -0.00042302009802928204
-6.517664597376003e-5 3.320493122922763e-6 -0.0007962368454442881
-0.0002338180865113876 2.6305528820630318e-6 -0.001215783887786833
-0.00044831208823641587 1.9650957307331456e-6 -0.0016561474562537526
-0.0006871547694610304 1.237610249199959e-6 -0.0021017707931736255
0.0 0.0 0.0
5.248544293539201e-5 -4.433801520800758e-6 -0.00014037672452650625
3.564814429432375e-5 -3.952505108945378e-6 -0.000423020098029282
-6.517664597375975e-5 -3.3204931229222847e-6 -0.0007962368454442879
-0.00023381808651138725 -2.6305528820632554e-6 -0.001215783887786833
-0.0004483120882364154 -1.965095730733511e-6 -0.0016561474562537524
-0.0006871547694610301 -1.2376102492008205e-6 -0.0021017707931736246
0.0 0.0 0.0
5.8423132947037195e-5 -1.2177673124856393e-5 -0.00012521657304105007
4.43329829265678e-5 -1.1534567223993988e-5 -0.0004116009797393587
-5.809527217268118e-5 -9.994345039338556e-6 -0.0007890119879815146
-0.0002290316220128377 -7.896679112026974e-6 -0.0012115630604828207
-0.0004458997296321441 -5.876864743442525e-6 -0.001653813241306157
-0.0006864692196434217 -3.095652728164606e-6 -0.002100080733866792
0.0 0.0 0.0
0.00016241200273346373 3.5794728119798554e-5 -0.00016586911196863282
0.00022112156787117593 3.2042610307628175e-5 -0.00048662005136205415
0.00016923044285873653 2.4809559214479413e-5 -0.0008983707886566709
2.8382135938841344e-5 1.733565260322002e-5 -0.0013487302817880044
-0.0001722412311992661 1.064058204433493e-5 -0.0018084073554147256
-0.00040849861872857025 4.336039393564594e-6 -0.0022637411310537344
0.0 0.0 0.0
0.00015645508384972448 1.361570380442609e-5 -0.0001814866499843987
0.00021336524218248964 1.1496415799986933e-5 -0.0004981024004710656
0.0001629247550919811 8.478058702021203e-6 -0.00090600228970657
2.4128247537566427e-5 5.832153321018472e-6 -0.001353396351854042
-0.00017424893948986354 3.6221576062434775e-6 -0.0018112053866374306
-0.0004088333917144548 1.7724455019035414e-6 -0.0022662046491813055
0.0 0.0 0.0
0.0001564550838497244 -1.3615703804425881e-5 -0.0001814866499843987
0.00021336524218248931 -1.1496415799986987e-5 -0.0004981024004710654
0.0001629247550919813 -8.478058702021668e-6 -0.0009060022897065697
2.412824753756678e-5 -5.832153321018892e-6 -0.0013533963518540418
-0.00017424893948986283 -3.6221576062453435e-6 -0.0018112053866374306
-0.00040883339171445123 -1.772445501906778e-6 -0.0022662046491813033
0.0 0.0 0.0
0.00016241200273346346 -3.5794728119798744e-5 -0.0001658691119686328
0.00022112156787117504 -3.204261030762781e-5 -0.0004866200513620547
0.00016923044285873713 -2.480955921448014e-5 -0.0008983707886566704
2.8382135938840226e-5 -1.733565260321988e-5 -0.0013487302817880044
-0.00017224123119926558 -1.064058204433622e-5 -0.0018084073554147258
-0.0004084986187285684 -4.33603939357064e-6 -0.002263741131053735
-7.807701944934032e-5 -4.3090749627855554e-5 -2.3457442830252654e-5
-0.0001601178316549647 -2.8794874040508148e-5 -8.773206203895136e-5
-7.682404633720908e-5 -1.0831285758879796e-5 -3.788182870617091e-5
0.0 0.0 0.0
-1.6724075501789134e-5 -1.2830396307477482e-5 -1.450737843977855e-5
-4.3443206900097163e-5 -1.0752558930634526e-5 -0.00010365873204719149
-1.6488449389923476e-5 -3.830149601617253e-6 -2.7708180358019883e-5
0.0 0.0 0.0
0.0 0.0 0.0
-9.162459325368122e-5 -2.7923936930822253e-5 -7.845030819755211e-5
-9.771953774203118e-5 -1.1429895379272812e-5 -9.667316990331462e-5
0.0 0.0 0.0
3.2636415800078176e-5 1.3276952684155144e-5 -3.398757633310037e-5
5.431523866929419e-5 7.824003157651139e-6 -0.00013598820449760616
2.7223176117265608e-5 2.9277664109283554e-6 -4.5524193789181045e-5
0.0 0.0 0.0
0.0 0.0 0.0
1.006079154904082e-5 -7.551958774292698e-7 -0.00010607516698328884
3.7761543884980017e-6 -6.863724204302702e-7 -0.00012160459735627632
0.0 0.0 0.0
9.071921413648858e-5 3.867751274411833e-5 -7.135746995182085e-5
0.00015833222835237449 2.3724702120576098e-5 -0.00017664846897912664
8.448307848166641e-5 8.866006702414275e-6 -8.321782806712592e-5
0.0 0.0 0.0
0.0 0.0 0.0
0.00010755549240908231 2.4079733220008425e-5 -0.00014368121493727362
0.00010114276509330154 9.405839301660507e-6 -0.00015857128281233606
0.0 0.0 0.0
-0.00016478414596262495 1.329128161605406e-19 -9.766374046905535e-5
-7.682404633720903e-5 1.0831285758879978e-5 -3.788182870617085e-5
0.0 0.0 0.0
-4.6220548823087014e-5 -6.431557764189562e-20 -0.0001103195215165942
-1.6488449389923523e-5 3.830149601617284e-6 -2.7708180358019806e-5
0.0 0.0 0.0
-9.771953774203133e-5 1.1429895379272851e-5 -9.66731699033146e-5
0.0 0.0 0.0
5.1468734203820004e-5 -3.26002535387563e-20 -0.0001420358177965284
2.722317611726565e-5 -2.9277664109281635e-6 -4.55241937891811e-5
0.0 0.0 0.0
3.776154388497902e-6 6.863724204305459e-7 -0.00012160459735627637
0.0 0.0 0.0
0.0001552268703801981 8.441154387647208e-20 -0.0001831894857992062
8.448307848166643e-5 -8.866006702414127e-6 -8.321782806712609e-5
0.0 0.0 0.0
0.0001011427650933014 -9.405839301660158e-6 -0.00015857128281233606
0.0 0.0 0.0
-0.00016011783165496471 2.8794874040507812e-5 -8.773206203895127e-5
-7.807701944934049e-5 4.309074962785516e-5 -2.3457442830252904e-5
0.0 0.0 0.0
-4.3443206900097346e-5 1.0752558930634521e-5 -0.00010365873204719142
-1.6724075501789253e-5 1.2830396307477546e-5 -1.45073784397784e-5
0.0 0.0 0.0
-9.162459325368134e-5 2.7923936930822677e-5 -7.845030819755215e-5
0.0 0.0 0.0
5.4315238669294056e-5 -7.824003157650944e-6 -0.00013598820449760624
3.263641580007799e-5 -1.3276952684155175e-5 -3.398757633310014e-5
0.0 0.0 0.0
1.006079154904065e-5 7.55195877429582e-7 -0.00010607516698328885
0.0 0.0 0.0
0.00015833222835237435 -2.372470212057601e-5 -0.00017664846897912667
9.071921413648816e-5 -3.867751274411839e-5 -7.135746995182077e-5
0.0 0.0 0.0
0.00010755549240908262 -2.4079733220008225e-5 -0.00014368121493727365
0.0 0.0 0.0
-0.00024034165997019878 -4.059874817454663e-5 -0.00017149998349271203
-0.00033912259970420174 -2.2371553571689745e-5 -0.0002963714443506226
-0.0002528198751592955 -1.326899778822418e-5 -0.00018644735624687126
-7.447346675871029e-5 -1.3399520053439802e-5 -0.00020659998010758807
-0.00013773528232532742 -7.090767294157084e-6 -0.00035597963620105687
-8.490098741417606e-5 -4.619815394624153e-6 -0.0002206420428570588
-0.0002240590882755179 -2.040301595300356e-5 -0.00032229107591323294
-0.00023690818852799267 -7.722866065693486e-6 -0.00033214089742813194
6.268514897350977e-5 1.2481522253737938e-5 -0.00025193668442099424
3.884208580450252e-5 7.679990362288833e-6 -0.0004187208091122161
5.4825514562156784e-5 3.7098796274894145e-6 -0.00026620096224608676
-4.165457522643051e-5 7.119098733193799e-7 -0.00037970463474683937
-5.132892466071927e-5 8.676063682163989e-8 -0.00039067153143512983
0.00020494494708392266 3.7909657973214744e-5 -0.0003120784950881316
0.00021660590400227007 2.1768979445466266e-5 -0.0004939317778418107
0.00019809573693567377 1.125998092596939e-5 -0.00032567710973223395
0.00013104591736819857 2.1959571370089992e-5 -0.00044701446996154036
0.00012337341414817048 7.81225836675574e-6 -0.0004588681994012164
-0.0003442407041681203 9.050232246148657e-20 -0.0003030014617898392
-0.00025281987515929534 1.3268997788224418e-5 -0.0001864473562468711
-0.00014269778672752862 -1.2774093163175203e-19 -0.00036162832663944175
-8.490098741417597e-5 4.619815394624354e-6 -0.00022064204285705878
-0.00023690818852799292 7.722866065693274e-6 -0.0003321408974281319
3.4686435412894575e-5 -1.9016122424381885e-20 -0.00042446225032211787
5.482551456215675e-5 -3.7098796274890804e-6 -0.00026620096224608676
-5.1328924660719304e-5 -8.676063682185772e-8 -0.0003906715314351297
0.00021260244109681757 1.6135089340546957e-20 -0.0004994271218778326
0.00019809573693567358 -1.1259980925969302e-5 -0.0003256771097322341
0.00012337341414817056 -7.812258366755739e-6 -0.00045886819940121627
-0.0003391225997042022 2.2371553571689613e-5 -0.00029637144435062273
-0.00024034165997019883 4.059874817454638e-5 -0.00017149998349271216
-0.00013773528232532742 7.090767294156822e-6 -0.00035597963620105665
-7.447346675871041e-5 1.3399520053439955e-5 -0.00020659998010758802
-0.00022405908827551827 2.0403015953002914e-5 -0.0003222910759132327
3.884208580450269e-5 -7.679990362288792e-6 -0.00041872080911221606
6.268514897350961e-5 -1.2481522253738e-5 -0.0002519366844209942