# vtk DataFile Version 1.0
FinEtools Export
ASCII

DATASET UNSTRUCTURED_GRID
POINTS 1700 double
0.0 0.0 0.0
0.0001875 0.0 0.0
0.000375 0.0 0.0
0.0005625 0.0 0.0
0.00075 0.0 0.0
0.0009375 0.0 0.0
0.001125 0.0 0.0
0.0013125 0.0 0.0
0.0015 0.0 0.0
0.0016875 0.0 0.0
0.001875 0.0 0.0
0.0020625 0.0 0.0
0.00225 0.0 0.0
0.0024375 0.0 0.0
0.002625 0.0 0.0
0.0028125 0.0 0.0
0.003 0.0 0.0
0.0 0.00011111111111111112 0.0
0.0001875 0.00011111111111111112 0.0
0.000375 0.00011111111111111112 0.0
0.0005625 0.00011111111111111112 0.0
0.00075 0.00011111111111111112 0.0
0.0009375 0.00011111111111111112 0.0
0.001125 0.00011111111111111112 0.0
0.0013125 0.00011111111111111112 0.0
0.0015 0.00011111111111111112 0.0
0.0016875 0.00011111111111111112 0.0
0.001875 0.00011111111111111112 0.0
0.0020625 0.00011111111111111112 0.0
0.00225 0.00011111111111111112 0.0
0.0024375 0.00011111111111111112 0.0
0.002625 0.00011111111111111112 0.0
0.0028125 0.00011111111111111112 0.0
0.003 0.00011111111111111112 0.0
0.0 0.00022222222222222223 0.0
0.0001875 0.00022222222222222223 0.0
0.000375 0.00022222222222222223 0.0
0.0005625 0.00022222222222222223 0.0
0.00075 0.00022222222222222223 0.0
0.0009375 0.00022222222222222223 0.0
0.001125 0.00022222222222222223 0.0
0.0013125 0.00022222222222222223 0.0
0.0015 0.00022222222222222223 0.0
0.0016875 0.00022222222222222223 0.0
0.001875 0.00022222222222222223 0.0
0.0020625 0.00022222222222222223 0.0
0.00225 0.00022222222222222223 0.0
0.0024375 0.00022222222222222223 0.0
0.002625 0.00022222222222222223 0.0
0.0028125 0.00022222222222222223 0.0
0.003 0.00022222222222222223 0.0
0.0 0.0003333333333333333 0.0
0.0001875 0.0003333333333333333 0.0
0.000375 0.0003333333333333333 0.0
0.0005625 0.0003333333333333333 0.0
0.00075 0.0003333333333333333 0.0
0.0009375 0.0003333333333333333 0.0
0.001125 0.0003333333333333333 0.0
0.0013125 0.0003333333333333333 0.0
0.0015 0.0003333333333333333 0.0
0.0016875 0.0003333333333333333 0.0
0.001875 0.0003333333333333333 0.0
0.0020625 0.0003333333333333333 0.0
0.00225 0.0003333333333333333 0.0
0.0024375 0.0003333333333333333 0.0
0.002625 0.0003333333333333333 0.0
0.0028125 0.0003333333333333333 0.0
0.003 0.0003333333333333333 0.0
0.0 0.00044444444444444447 0.0
0.0001875 0.00044444444444444447 0.0
0.000375 0.00044444444444444447 0.0
0.0005625 0.00044444444444444447 0.0
0.00075 0.00044444444444444447 0.0
0.0009375 0.00044444444444444447 0.0
0.001125 0.00044444444444444447 0.0
0.0013125 0.00044444444444444447 0.0
0.0015 0.00044444444444444447 0.0
0.0016875 0.00044444444444444447 0.0
0.001875 0.00044444444444444447 0.0
0.0020625 0.00044444444444444447 0.0
0.00225 0.00044444444444444447 0.0
0.0024375 0.00044444444444444447 0.0
0.002625 0.00044444444444444447 0.0
0.0028125 0.00044444444444444447 0.0
0.003 0.00044444444444444447 0.0
0.0 0.0005555555555555556 0.0
0.0001875 0.0005555555555555556 0.0
0.000375 0.0005555555555555556 0.0
0.0005625 0.0005555555555555556 0.0
0.00075 0.0005555555555555556 0.0
0.0009375 0.0005555555555555556 0.0
0.001125 0.0005555555555555556 0.0
0.0013125 0.0005555555555555556 0.0
0.0015 0.0005555555555555556 0.0
0.0016875 0.0005555555555555556 0.0
0.001875 0.0005555555555555556 0.0
0.0020625 0.0005555555555555556 0.0
0.00225 0.0005555555555555556 0.0
0.0024375 0.0005555555555555556 0.0
0.002625 0.0005555555555555556 0.0
0.0028125 0.0005555555555555556 0.0
0.003 0.0005555555555555556 0.0
0.0 0.0006666666666666666 0.0
0.0001875 0.0006666666666666666 0.0
0.000375 0.0006666666666666666 0.0
0.0005625 0.0006666666666666666 0.0
0.00075 0.0006666666666666666 0.0
0.0009375 0.0006666666666666666 0.0
0.001125 0.0006666666666666666 0.0
0.0013125 0.0006666666666666666 0.0
0.0015 0.0006666666666666666 0.0
0.0016875 0.0006666666666666666 0.0
0.001875 0.0006666666666666666 0.0
0.0020625 0.0006666666666666666 0.0
0.00225 0.0006666666666666666 0.0
0.0024375 0.0006666666666666666 0.0
0.002625 0.0006666666666666666 0.0
0.0028125 0.0006666666666666666 0.0
0.003 0.0006666666666666666 0.0
0.0 0.0007777777777777777 0.0
0.0001875 0.0007777777777777777 0.0
0.000375 0.0007777777777777777 0.0
0.0005625 0.0007777777777777777 0.0
0.00075 0.0007777777777777777 0.0
0.0009375 0.0007777777777777777 0.0
0.001125 0.0007777777777777777 0.0
0.0013125 0.0007777777777777777 0.0
0.0015 0.0007777777777777777 0.0
0.0016875 0.0007777777777777777 0.0
0.001875 0.0007777777777777777 0.0
0.0020625 0.0007777777777777777 0.0
0.00225 0.0007777777777777777 0.0
0.0024375 0.0007777777777777777 0.0
0.002625 0.0007777777777777777 0.0
0.0028125 0.0007777777777777777 0.0
0.003 0.0007777777777777777 0.0
0.0 0.0008888888888888889 0.0
0.0001875 0.0008888888888888889 0.0
0.000375 0.0008888888888888889 0.0
0.0005625 0.0008888888888888889 0.0
0.00075 0.0008888888888888889 0.0
0.0009375 0.0008888888888888889 0.0
0.001125 0.0008888888888888889 0.0
0.0013125 0.0008888888888888889 0.0
0.0015 0.0008888888888888889 0.0
0.0016875 0.0008888888888888889 0.0
0.001875 0.0008888888888888889 0.0
0.0020625 0.0008888888888888889 0.0
0.00225 0.0008888888888888889 0.0
0.0024375 0.0008888888888888889 0.0
0.002625 0.0008888888888888889 0.0
0.0028125 0.0008888888888888889 0.0
0.003 0.0008888888888888889 0.0
0.0 0.001 0.0
0.0001875 0.001 0.0
0.000375 0.001 0.0
0.0005625 0.001 0.0
0.00075 0.001 0.0
0.0009375 0.001 0.0
0.001125 0.001 0.0
0.0013125 0.001 0.0
0.0015 0.001 0.0
0.0016875 0.001 0.0
0.001875 0.001 0.0
0.0020625 0.001 0.0
0.00225 0.001 0.0
0.0024375 0.001 0.0
0.002625 0.001 0.0
0.0028125 0.001 0.0
0.003 0.001 0.0
0.0 0.0 0.00011111111111111112
0.0001875 0.0 0.00011111111111111112
0.000375 0.0 0.00011111111111111112
0.0005625 0.0 0.00011111111111111112
0.00075 0.0 0.00011111111111111112
0.0009375 0.0 0.00011111111111111112
0.001125 0.0 0.00011111111111111112
0.0013125 0.0 0.00011111111111111112
0.0015 0.0 0.00011111111111111112
0.0016875 0.0 0.00011111111111111112
0.001875 0.0 0.00011111111111111112
0.0020625 0.0 0.00011111111111111112
0.00225 0.0 0.00011111111111111112
0.0024375 0.0 0.00011111111111111112
0.002625 0.0 0.00011111111111111112
0.0028125 0.0 0.00011111111111111112
0.003 0.0 0.00011111111111111112
0.0 0.00011111111111111112 0.00011111111111111112
0.0001875 0.00011111111111111112 0.00011111111111111112
0.000375 0.00011111111111111112 0.00011111111111111112
0.0005625 0.00011111111111111112 0.00011111111111111112
0.00075 0.00011111111111111112 0.00011111111111111112
0.0009375 0.00011111111111111112 0.00011111111111111112
0.001125 0.00011111111111111112 0.00011111111111111112
0.0013125 0.00011111111111111112 0.00011111111111111112
0.0015 0.00011111111111111112 0.00011111111111111112
0.0016875 0.00011111111111111112 0.00011111111111111112
0.001875 0.00011111111111111112 0.00011111111111111112
0.0020625 0.00011111111111111112 0.00011111111111111112
0.00225 0.00011111111111111112 0.00011111111111111112
0.0024375 0.00011111111111111112 0.00011111111111111112
0.002625 0.00011111111111111112 0.00011111111111111112
0.0028125 0.00011111111111111112 0.00011111111111111112
0.003 0.00011111111111111112 0.00011111111111111112
0.0 0.00022222222222222223 0.00011111111111111112
0.0001875 0.00022222222222222223 0.00011111111111111112
0.000375 0.00022222222222222223 0.00011111111111111112
0.0005625 0.00022222222222222223 0.00011111111111111112
0.00075 0.00022222222222222223 0.00011111111111111112
0.0009375 0.00022222222222222223 0.00011111111111111112
0.001125 0.00022222222222222223 0.00011111111111111112
0.0013125 0.00022222222222222223 0.00011111111111111112
0.0015 0.00022222222222222223 0.00011111111111111112
0.0016875 0.00022222222222222223 0.00011111111111111112
0.001875 0.00022222222222222223 0.00011111111111111112
0.0020625 0.00022222222222222223 0.00011111111111111112
0.00225 0.00022222222222222223 0.00011111111111111112
0.0024375 0.00022222222222222223 0.00011111111111111112
0.002625 0.00022222222222222223 0.00011111111111111112
0.0028125 0.00022222222222222223 0.00011111111111111112
0.003 0.00022222222222222223 0.00011111111111111112
0.0 0.0003333333333333333 0.00011111111111111112
0.0001875 0.0003333333333333333 0.00011111111111111112
0.000375 0.0003333333333333333 0.00011111111111111112
0.0005625 0.0003333333333333333 0.00011111111111111112
0.00075 0.0003333333333333333 0.00011111111111111112
0.0009375 0.0003333333333333333 0.00011111111111111112
0.001125 0.0003333333333333333 0.00011111111111111112
0.0013125 0.0003333333333333333 0.00011111111111111112
0.0015 0.0003333333333333333 0.00011111111111111112
0.0016875 0.0003333333333333333 0.00011111111111111112
0.001875 0.0003333333333333333 0.00011111111111111112
0.0020625 0.0003333333333333333 0.00011111111111111112
0.00225 0.0003333333333333333 0.00011111111111111112
0.0024375 0.0003333333333333333 0.00011111111111111112
0.002625 0.0003333333333333333 0.00011111111111111112
0.0028125 0.0003333333333333333 0.00011111111111111112
0.003 0.0003333333333333333 0.00011111111111111112
0.0 0.00044444444444444447 0.00011111111111111112
0.0001875 0.00044444444444444447 0.00011111111111111112
0.000375 0.00044444444444444447 0.00011111111111111112
0.0005625 0.00044444444444444447 0.00011111111111111112
0.00075 0.00044444444444444447 0.00011111111111111112
0.0009375 0.00044444444444444447 0.00011111111111111112
0.001125 0.00044444444444444447 0.00011111111111111112
0.0013125 0.00044444444444444447 0.00011111111111111112
0.0015 0.00044444444444444447 0.00011111111111111112
0.0016875 0.00044444444444444447 0.00011111111111111112
0.001875 0.00044444444444444447 0.00011111111111111112
0.0020625 0.00044444444444444447 0.00011111111111111112
0.00225 0.00044444444444444447 0.00011111111111111112
0.0024375 0.00044444444444444447 0.00011111111111111112
0.002625 0.00044444444444444447 0.00011111111111111112
0.0028125 0.00044444444444444447 0.00011111111111111112
0.003 0.00044444444444444447 0.00011111111111111112
0.0 0.0005555555555555556 0.00011111111111111112
0.0001875 0.0005555555555555556 0.00011111111111111112
0.000375 0.0005555555555555556 0.00011111111111111112
[...]
POINT_DATA 1700
VECTORS u double
0.0 0.0 0.0
-6.476477577269166e-5 -3.8535909313833286e-5 -1.4563844073806814e-5
-0.00011715136727401178 -4.710511558480331e-5 -4.2282931029988205e-5
-0.0001740767352986125 -4.548157521399309e-5 -9.833800761908752e-5
-0.00023601123825474937 -4.0033152623331915e-5 -0.00017202668788293628
-0.0003019737038632535 -3.424913313883172e-5 -0.0002598076024107206
-0.0003716163494758817 -2.8949991339450806e-5 -0.0003594628312247584
-0.0004449575805278379 -2.4278026084808166e-5 -0.0004696714696218133
-0.0005220144924163622 -2.0134017228254638e-5 -0.0005893276940890434
-0.0006026689711398935 -1.6399332234765774e-5 -0.0007174193365776069
-0.000686635001303788 -1.2982658438441606e-5 -0.0008529950736931478
-0.0007734703394533569 -9.82439692318392e-6 -0.0009951713726821547
-0.0008625982434379205 -6.892943965539957e-6 -0.001143132470468861
-0.0009533288159215671 -4.179536160540517e-6 -0.0012961098530628458
-0.0010449557796791155 -1.7209115792415608e-6 -0.001453343318540247
-0.0011371016519762568 6.417481058175945e-7 -0.0016140743179330072
-0.0012309023586287392 2.802213400872405e-6 -0.001779171877621991
0.0 0.0 0.0
-5.6386703994845585e-5 -2.609902619217645e-5 -2.2784554785180253e-5
-0.00011817633588214149 -3.660296394136391e-5 -5.374010668133812e-5
-0.00017960469419461332 -3.594911491198757e-5 -0.00010695473640286574
-0.00024276250077430496 -3.18694973684639e-5 -0.00017827701756664336
-0.0003085537402526361 -2.7196007317300874e-5 -0.00026432596787714154
-0.0003776145634399124 -2.2901136811790564e-5 -0.0003628045942250466
-0.00045028984774235866 -1.9137407782311116e-5 -0.00047215883568219903
-0.0005266941428852537 -1.583045543579741e-5 -0.000591154417374653
-0.0006067269688832896 -1.2872309424444176e-5 -0.0007187120288972256
-0.0006901015595387736 -1.0180342577635704e-5 -0.0008538478489998985
-0.0007763739677257651 -7.70220414830897e-6 -0.000995660027204357
-0.0008649705534747556 -5.41011345030799e-6 -0.0011433208355475088
-0.0009552176371003914 -3.2974683723732114e-6 -0.0012960553026492916
-0.0010464603784174917 -1.3560759863255488e-6 -0.001453088001589055
-0.0011383295565573655 4.70311690695943e-7 -0.0016136500753953348
-0.0012320405680262855 2.047897188897024e-6 -0.0017786739296888152
0.0 0.0 0.0
-5.819207683640658e-5 -1.6928821221558364e-5 -2.7275673780535192e-5
-0.00011903924083132256 -2.47542018401912e-5 -6.041574454176814e-5
-0.00018223991089197453 -2.5635890875861028e-5 -0.00011362257147936199
-0.00024636342433392405 -2.3071740992725163e-5 -0.0001836437030350646
-0.0003124602665446302 -1.9760361645985345e-5 -0.00026847641770060584
-0.0003814041525898599 -1.661182808714462e-5 -0.0003659807496230689
-0.000453778007498461 -1.38455852976593e-5 -0.0004745967539405554
-0.0005298096060523205 -1.1427222691705978e-5 -0.0005930225356483721
-0.0006094500115249778 -9.277515389675586e-6 -0.0007201266493677238
-0.000692432886560652 -7.331072495892226e-6 -0.0008548916725914823
-0.0007783240282668912 -5.546357509311471e-6 -0.0009963947868978648
-0.000866558820571282 -3.901657619424365e-6 -0.0011437930396274716
-0.0009564800161871648 -2.386971689728513e-6 -0.0012962954357685654
-0.0010474481847366995 -9.895489663050828e-7 -0.0014531203449474476
-0.001139132937181876 3.018135145515254e-7 -0.0016135087536688483
-0.00123276310580745 1.3381130040667687e-6 -0.0017784191783703652
0.0 0.0 0.0
-5.944773864525526e-5 -9.585078931833363e-6 -2.967055749137303e-5
-0.00012042154441013159 -1.4298968381155113e-5 -6.430846618660887e-5
-0.00018370502336366305 -1.5195002169165514e-5 -0.00011782614577994303
-0.0002483598642534148 -1.393207186442759e-5 -0.00018736993695583402
-0.0003147333858937718 -1.198780292509565e-5 -0.00027147453954935437
-0.00038370680707132865 -1.0078113005963437e-5 -0.00036832651276121195
-0.00045594858981562507 -8.386627312556627e-6 -0.0004764202809635347
-0.0005317718697326622 -6.911056396684645e-6 -0.0005944386486924629
-0.0006111738037917404 -5.604589140028219e-6 -0.0007212195330313001
-0.000693910488472258 -4.42601702914098e-6 -0.0008557214620168854
-0.0007795588548169094 -3.3486583397726833e-6 -0.0009970049732964605
-0.0008675626817617813 -2.3581070526165948e-6 -0.0011442143401492204
-0.0009572735428520038 -1.446247421107842e-6 -0.0012965489462537596
-0.001048065956666483 -6.054500329081002e-7 -0.0014532242069457192
-0.00113963579299493 1.5930010917551772e-7 -0.001613494345233974
-0.0012332201169170253 7.364664800152298e-7 -0.001778322894640794
0.0 0.0 0.0
-6.014656251054098e-5 -3.1037776494288434e-6 -3.070965356708322e-5
-0.0001211682016836492 -4.673828271024388e-6 -6.610519266443624e-5
-0.0001844607555934386 -5.027062343945557e-6 -0.00011984613117389118
-0.0002492552875853445 -4.6505437796643155e-6 -0.00018924186715941224
-0.00031578334260250597 -4.017953511509925e-6 -0.000273030914395763
-0.00038479597595896914 -3.378279616375571e-6 -0.0003695600050153991
-0.00045699164679780825 -2.8095486411993057e-6 -0.00047738648081543613
-0.0005327222240275063 -2.313380817103635e-6 -0.0005951936735110551
-0.0006120115261064301 -1.8749717595079936e-6 -0.0007218069846518737
-0.0006946292319316612 -1.4802191412916185e-6 -0.0008561727660920626
-0.0007801593028034797 -1.1199448368218105e-6 -0.0009973425296003694
-0.0008680501238026655 -7.890717314237758e-7 -0.0011444538024347431
-0.0009576579014204001 -4.845849174131157e-7 -0.0012967011784870584
-0.0010483651637950518 -2.0413866806795463e-7 -0.0014532999930285092
-0.0011398815451542307 4.8447038798706736e-8 -0.0016135113065615272
-0.0012334482132261015 2.3299694876770278e-7 -0.001778296864220479
0.0 0.0 0.0
-6.014656251054098e-5 3.103777649428804e-6 -3.070965356708323e-5
-0.00012116820168364917 4.673828271024459e-6 -6.610519266443622e-5
-0.00018446075559343857 5.027062343945649e-6 -0.0001198461311738912
-0.00024925528758534463 4.650543779664393e-6 -0.00018924186715941227
-0.000315783342602506 4.017953511509929e-6 -0.000273030914395763
-0.00038479597595896914 3.3782796163756113e-6 -0.0003695600050153991
-0.0004569916467978082 2.8095486411993917e-6 -0.00047738648081543613
-0.0005327222240275063 2.3133808171035874e-6 -0.0005951936735110551
-0.0006120115261064301 1.8749717595080514e-6 -0.0007218069846518738
-0.000694629231931661 1.4802191412915948e-6 -0.0008561727660920625
-0.0007801593028034799 1.1199448368217864e-6 -0.0009973425296003694
-0.0008680501238026656 7.890717314234798e-7 -0.0011444538024347431
-0.0009576579014203999 4.845849174132619e-7 -0.0012967011784870584
-0.0010483651637950518 2.0413866806847932e-7 -0.0014532999930285092
-0.001139881545154231 -4.844703879878313e-8 -0.0016135113065615272
-0.0012334482132261013 -2.329969487670426e-7 -0.001778296864220479
0.0 0.0 0.0
-5.944773864525529e-5 9.585078931833299e-6 -2.967055749137309e-5
-0.00012042154441013158 1.4298968381155091e-5 -6.430846618660886e-5
-0.00018370502336366305 1.5195002169165615e-5 -0.00011782614577994308
-0.0002483598642534148 1.3932071864427666e-5 -0.00018736993695583402
-0.00031473338589377184 1.1987802925095686e-5 -0.0002714745395493545
-0.0003837068070713286 1.0078113005963456e-5 -0.000368326512761212
-0.0004559485898156249 8.38662731255672e-6 -0.0004764202809635347
-0.0005317718697326622 6.911056396684559e-6 -0.0005944386486924629
-0.0006111738037917404 5.604589140028265e-6 -0.0007212195330313002
-0.0006939104884722582 4.426017029141029e-6 -0.0008557214620168854
-0.0007795588548169093 3.3486583397726567e-6 -0.0009970049732964607
-0.0008675626817617811 2.3581070526163157e-6 -0.0011442143401492204
-0.0009572735428520038 1.4462474211079567e-6 -0.0012965489462537596
-0.001048065956666483 6.054500329085524e-7 -0.0014532242069457192
-0.00113963579299493 -1.5930010917560767e-7 -0.001613494345233974
-0.0012332201169170253 -7.364664800147725e-7 -0.001778322894640794
0.0 0.0 0.0
-5.819207683640659e-5 1.6928821221558375e-5 -2.7275673780535247e-5
-0.00011903924083132255 2.47542018401912e-5 -6.041574454176813e-5
-0.0001822399108919746 2.563589087586116e-5 -0.00011362257147936206
-0.00024636342433392405 2.307174099272524e-5 -0.00018364370303506464
-0.0003124602665446303 1.9760361645985406e-5 -0.00026847641770060595
-0.0003814041525898598 1.6611828087144683e-5 -0.00036598074962306893
-0.0004537780074984609 1.3845585297659455e-5 -0.0004745967539405554
-0.0005298096060523205 1.1427222691705987e-5 -0.0005930225356483721
-0.0006094500115249779 9.277515389675618e-6 -0.000720126649367724
-0.0006924328865606521 7.331072495892342e-6 -0.0008548916725914823
-0.0007783240282668912 5.546357509311445e-6 -0.000996394786897865
-0.0008665588205712818 3.901657619424145e-6 -0.0011437930396274718
-0.0009564800161871649 2.3869716897286854e-6 -0.0012962954357685656
-0.0010474481847366995 9.895489663056537e-7 -0.0014531203449474476
-0.001139132937181876 -3.018135145515638e-7 -0.0016135087536688483
-0.00123276310580745 -1.3381130040662178e-6 -0.0017784191783703652
0.0 0.0 0.0
-5.6386703994845606e-5 2.609902619217648e-5 -2.2784554785180317e-5
-0.00011817633588214146 3.6602963941363904e-5 -5.3740106681338145e-5
-0.0001796046941946134 3.5949114911987726e-5 -0.00010695473640286578
-0.0002427625007743051 3.186949736846396e-5 -0.00017827701756664352
-0.0003085537402526359 2.7196007317301006e-5 -0.0002643259678771416
-0.00037761456343991226 2.2901136811790605e-5 -0.0003628045942250466
-0.0004502898477423584 1.913740778231123e-5 -0.0004721588356821991
-0.0005266941428852536 1.5830455435797395e-5 -0.0005911544173746532
-0.0006067269688832895 1.2872309424444202e-5 -0.0007187120288972257
-0.0006901015595387736 1.0180342577635729e-5 -0.0008538478489998986
-0.000776373967725765 7.7022041483089e-6 -0.0009956600272043572
-0.0008649705534747555 5.410113450307744e-6 -0.001143320835547509
-0.0009552176371003913 3.2974683723735024e-6 -0.0012960553026492916
-0.001046460378417492 1.3560759863260623e-6 -0.001453088001589055
-0.0011383295565573655 -4.703116906960667e-7 -0.0016136500753953348
-0.0012320405680262853 -2.0478971888964246e-6 -0.001778673929688815
0.0 0.0 0.0
-6.476477577269167e-5 3.85359093138333e-5 -1.456384407380687e-5
-0.00011715136727401187 4.710511558480334e-5 -4.228293102998826e-5
-0.00017407673529861256 4.548157521399318e-5 -9.833800761908758e-5
-0.00023601123825474943 4.0033152623331936e-5 -0.0001720266878829364
-0.00030197370386325347 3.424913313883193e-5 -0.00025980760241072084
-0.00037161634947588157 2.8949991339450925e-5 -0.00035946283122475847
-0.0004449575805278379 2.4278026084808355e-5 -0.0004696714696218133
-0.000522014492416362 2.013401722825464e-5 -0.0005893276940890435
-0.0006026689711398935 1.6399332234765805e-5 -0.0007174193365776072
-0.0006866350013037881 1.2982658438441715e-5 -0.0008529950736931481
-0.0007734703394533569 9.824396923183651e-6 -0.000995171372682155
-0.0008625982434379205 6.89294396553967e-6 -0.0011431324704688614
-0.0009533288159215671 4.179536160540911e-6 -0.001296109853062846
-0.0010449557796791155 1.7209115792421126e-6 -0.0014533433185402473
-0.0011371016519762568 -6.417481058175943e-7 -0.0016140743179330072
-0.0012309023586287392 -2.802213400871853e-6 -0.001779171877621991
0.0 0.0 0.0
-4.418794473662736e-5 -2.9179424871717845e-5 -5.4970374215592215e-6
-8.240203189195877e-5 -3.539949673196718e-5 -4.181373338161912e-5
-0.00012516926599660181 -3.431808069987546e-5 -0.00010306181564431926
-0.00017611938662044876 -3.0354182986041217e-5 -0.00018298052409448785
-0.0002336090680293271 -2.594562942851348e-5 -0.0002768839257348032
-0.0002966601295900159 -2.183085652819155e-5 -0.0003824521512637445
-0.0003647862278944315 -1.8173439980887888e-5 -0.000498211706437372
-0.00043771074151651096 -1.492508134833362e-5 -0.0006229749123209735
-0.0005151202527364391 -1.2000933136939435e-5 -0.0007556606616258514
-0.0005965861459481032 -9.329916077933219e-6 -0.0008952702109414519
-0.0006815542553436795 -6.863733566297413e-6 -0.001040890949895443
-0.0007693567902431417 -4.572263979318677e-6 -0.0011916947033982883
-0.0008592263311346086 -2.439314653886804e-6 -0.0013469300123152964
-0.0009503328112957187 -4.18245748146495e-7 -0.0015059293133677272
-0.0010420555234695466 1.59905788403215e-6 -0.0016683666218601462
-0.0011349848497192298 3.7158570403356443e-6 -0.0018339724544310441
0.0 0.0 0.0
-3.6486088039980135e-5 -2.0025826484168805e-5 -1.3271710579637183e-5
-8.285980537710215e-5 -2.8149331335111492e-5 -5.128136249281541e-5
-0.00013021906385194182 -2.7580838144381342e-5 -0.00011097205121176949
-0.00018247917594595546 -2.4397450041895274e-5 -0.00018895198794476042
-0.0002399449561059004 -2.0723042386021608e-5 -0.0002813213494099164
-0.00030248999139982234 -1.7332551319008996e-5 -0.00038577578943022175
-0.0003699962265872385 -1.43612863342376e-5 -0.0005007053902781384
-0.00044229789367236205 -1.175639384554164e-5 -0.0006248191397489351
-0.0005191084300457155 -9.432574980092932e-6 -0.0007569780889962903
-0.0006000013789050003 -7.322594947153055e-6 -0.0008961528225739276
-0.000684421839349703 -5.382759091791285e-6 -0.0010414127657987582
-0.0007717050823673854 -3.5875119396144442e-6 -0.0011919181043224946
-0.0008610983608902803 -1.9201168352797816e-6 -0.001346907113590843
-0.0009518067779472583 -3.460763783134223e-7 -0.0015056952482250298
-0.0010432330014969423 1.2042421510994486e-6 -0.0016679450582699313
-0.0011360832306898298 2.6818144054940976e-6 -0.0018334410349029548
0.0 0.0 0.0
-3.6274881896107775e-5 -1.3055012622598167e-5 -1.7234775666952748e-5
-8.296285567304553e-5 -1.9405818818851906e-5 -5.759043679455631e-5
-0.0001326886712379771 -1.9938304143446106e-5 -0.00011701124727163327
-0.00018619565604528502 -1.7816226607451554e-5 -0.00019387804934710055
-0.00024400589238566405 -1.5133465150445507e-5 -0.00028514196303237416
-0.0003064338869958405 -1.2608106104671981e-5 -0.000388699749668132
-0.0003736201364228145 -1.040593742725195e-5 -0.0005029368731523901
-0.00044553086956099843 -8.493176434026922e-6 -0.0006265107900438328
-0.0005219340586856929 -6.800976161935473e-6 -0.000758237704260908
-0.0006024239119575787 -5.273555995482616e-6 -0.0008970587147678873
-0.0006864538716128003 -3.875374125892824e-6 -0.00104202454069529
-0.0007733658643560113 -2.5860334762560528e-6 -0.001192281628379954
-0.000862418244486725 -1.3907378210961911e-6 -0.0013470573291239766
-0.0009528287156287507 -2.643593316715291e-7 -0.0015056601122750391
-0.0010440445269313623 8.219511518794478e-7 -0.001667770099910153
-0.0011368450491955958 1.7650988920564567e-6 -0.0018331834008192736
0.0 0.0 0.0
-3.6529373711916693e-5 -7.4540811497339215e-6 -1.9352082466653e-5
-8.36757628095758e-5 -1.1266821121948586e-5 -6.122219470459382e-5
-0.00013398854206446472 -1.1912392138526937e-5 -0.00012092525340541015
-0.0001882195735572558 -1.0821979876633108e-5 -0.0001973095154523057
-0.0002463803761253293 -9.21512042624083e-6 -0.0002879044157575114
-0.00030884741391823026 -7.664435499555998e-6 -0.00039085468602639823
-0.0003758946007789943 -6.309018352098386e-6 -0.0005046014170524664
-0.00044758505928268647 -5.138209207222346e-6 -0.0006277897850738119
-0.0005237387848105733 -4.108453750903527e-6 -0.000759209591751196
-0.0006039733998039117 -3.183195149619044e-6 -0.0008977803717112889
-0.0006877529122726641 -2.339065641338023e-6 -0.0010425377819976026
-0.0007744260300459419 -1.5626277416502477e-6 -0.0011926172348006592
-0.0008632577295539882 -8.436208846637528e-7 -0.0013472382899378885
-0.0009534776441457632 -1.6712509904713751e-7 -0.001505710942720551
-0.0010445676524111392 4.730949587473136e-7 -0.001667730381497799
-0.0011373501143862347 9.933407453899538e-7 -0.001833093937240199
0.0 0.0 0.0
-3.6724642144517094e-5 -2.426758375626135e-6 -2.025987426138779e-5
-8.410220115651479e-5 -3.691882063412141e-6 -6.291660602769666e-5
-0.00013463417178166903 -3.952093584007949e-6 -0.0001228127685573421
-0.00018912152133776765 -3.6235479944188116e-6 -0.0001990472838297995
-0.0002474754394261009 -3.0946293409163225e-6 -0.0002893398716096343
-0.0003099931781831123 -2.572027730820676e-6 -0.0003919878944094149
-0.0003769921809583658 -2.1145922729203563e-6 -0.000505482800337731
-0.0004485845608980408 -1.7202142547615113e-6 -0.0006284712990204627
-0.0005246200206747369 -1.3744107598033475e-6 -0.000759732023376144
-0.0006047308158213187 -1.064443047554977e-6 -0.0008981734748373286
-0.0006883878121277194 -7.821674146831559e-7 -0.0010428231122908303
-0.00077494366298374 -5.228612522299588e-7 -0.0011928103546472771
-0.0008636668839559113 -2.828495231705177e-7 -0.0013473513233016787
-0.00095379464930239 -5.730289554608643e-8 -0.0015057583812491569
-0.0010448274504434932 1.538901151222001e-7 -0.001667734377155476
-0.0011376048233159943 3.1979215367157103e-7 -0.001833073779293845
0.0 0.0 0.0
-3.6724642144517115e-5 2.426758375626126e-6 -2.0259874261387792e-5
-8.410220115651477e-5 3.691882063412224e-6 -6.291660602769667e-5
-0.000134634171781669 3.952093584008069e-6 -0.0001228127685573421
-0.00018912152133776763 3.6235479944189492e-6 -0.00019904728382979953
-0.00024747543942610096 3.094629340916413e-6 -0.00028933987160963435
-0.0003099931781831123 2.5720277308207335e-6 -0.0003919878944094149
-0.00037699218095836584 2.1145922729204525e-6 -0.000505482800337731
-0.0004485845608980408 1.720214254761456e-6 -0.0006284712990204627
-0.0005246200206747368 1.3744107598034202e-6 -0.000759732023376144
-0.0006047308158213186 1.0644430475549913e-6 -0.0008981734748373286
-0.0006883878121277192 7.821674146832748e-7 -0.0010428231122908303
-0.0007749436629837401 5.228612522296771e-7 -0.0011928103546472771
-0.0008636668839559112 2.828495231707893e-7 -0.0013473513233016787
-0.00095379464930239 5.730289554660987e-8 -0.0015057583812491569
-0.0010448274504434934 -1.5389011512228483e-7 -0.001667734377155476
-0.0011376048233159943 -3.197921536710862e-7 -0.001833073779293845
0.0 0.0 0.0
-3.652937371191671e-5 7.454081149733878e-6 -1.9352082466653034e-5
-8.367576280957576e-5 1.1266821121948658e-5 -6.122219470459382e-5
-0.00013398854206446474 1.1912392138527076e-5 -0.00012092525340541019
-0.0001882195735572559 1.082197987663325e-5 -0.00019730951545230573
-0.0002463803761253294 9.21512042624094e-6 -0.0002879044157575115
-0.00030884741391823026 7.664435499556102e-6 -0.00039085468602639823
-0.0003758946007789942 6.3090183520984444e-6 -0.0005046014170524664
-0.00044758505928268663 5.138209207222362e-6 -0.000627789785073812
-0.0005237387848105732 4.108453750903642e-6 -0.000759209591751196
-0.0006039733998039116 3.1831951496190857e-6 -0.0008977803717112889
-0.0006877529122726642 2.3390656413379843e-6 -0.0010425377819976026
-0.0007744260300459417 1.5626277416500682e-6 -0.0011926172348006592
-0.0008632577295539884 8.436208846640155e-7 -0.0013472382899378885
-0.0009534776441457632 1.6712509904768989e-7 -0.001505710942720551
-0.0010445676524111392 -4.7309495874733457e-7 -0.001667730381497799
-0.0011373501143862347 -9.933407453893838e-7 -0.0018330939372401987
0.0 0.0 0.0
-3.62748818961078e-5 1.305501262259821e-5 -1.7234775666952768e-5
-8.296285567304556e-5 1.9405818818851896e-5 -5.759043679455632e-5
-0.00013268867123797712 1.993830414344625e-5 -0.00011701124727163333
-0.00018619565604528505 1.781622660745167e-5 -0.00019387804934710063
-0.00024400589238566405 1.5133465150445597e-5 -0.00028514196303237426
-0.00030643388699584033 1.2608106104672136e-5 -0.0003886997496681321
-0.0003736201364228144 1.040593742725206e-5 -0.0005029368731523901
-0.0004455308695609985 8.493176434026941e-6 -0.0006265107900438329
-0.0005219340586856927 6.800976161935588e-6 -0.0007582377042609081
-0.0006024239119575787 5.2735559954827126e-6 -0.0008970587147678874
-0.0006864538716128003 3.875374125892747e-6 -0.0010420245406952903
-0.0007733658643560114 2.586033476255823e-6 -0.0011922816283799543
-0.0008624182444867252 1.3907378210965026e-6 -0.0013470573291239766
-0.0009528287156287507 2.6435933167214344e-7 -0.0015056601122750393
-0.0010440445269313623 -8.219511518794708e-7 -0.001667770099910153
-0.001136845049195596 -1.7650988920559847e-6 -0.0018331834008192736
0.0 0.0 0.0
-3.648608803998015e-5 2.0025826484168808e-5 -1.3271710579637213e-5
-8.285980537710215e-5 2.814933133511156e-5 -5.128136249281544e-5
-0.00013021906385194185 2.7580838144381468e-5 -0.00011097205121176957